 Gaussian 09, Revision B.01,
 Gaussian 09:  EM64L-G09RevB.01 12-Aug-2010

 ---------------------
 #n RHF/6-31G(d,p) Opt
 ---------------------

 -----
 Title
 -----
 Symbolic Z-matrix:
 Charge =  0 Multiplicity = 1

 SCF Done:  E(RHF) =  -308.674710145     A.U. after   14 cycles
 SCF Done:  E(RHF) =  -308.675141287     A.U. after   14 cycles
 SCF Done:  E(RHF) =  -308.682366665     A.U. after   14 cycles
 SCF Done:  E(RHF) =  -308.684953782     A.U. after   15 cycles
 SCF Done:  E(RHF) =  -308.685979513     A.U. after   14 cycles
 SCF Done:  E(RHF) =  -308.687403094     A.U. after   15 cycles
 SCF Done:  E(RHF) =  -308.688000158     A.U. after   15 cycles
 SCF Done:  E(RHF) =  -308.688233698     A.U. after   12 cycles
 SCF Done:  E(RHF) =  -308.688372510     A.U. after   15 cycles
 SCF Done:  E(RHF) =  -308.688509157     A.U. after   15 cycles
 SCF Done:  E(RHF) =  -308.688738003     A.U. after   15 cycles
 SCF Done:  E(RHF) =  -308.688768203     A.U. after   15 cycles
 SCF Done:  E(RHF) =  -308.688771205     A.U. after   15 cycles
 SCF Done:  E(RHF) =  -308.688771805     A.U. after   15 cycles
 SCF Done:  E(RHF) =  -308.688771879     A.U. after   15 cycles
 SCF Done:  E(RHF) =  -308.688771891     A.U. after   15 cycles
 Optimization completed.
    -- Stationary point found.

                         Standard orientation:
 ---------------------------------------------------------------------
 Center     Atomic      Atomic             Coordinates (Angstroms)
 Number     Number       Type             X           Y           Z
 ---------------------------------------------------------------------
      1          6           0       -1.316307    0.451658   -1.010912
      2          6           0       -0.413880    1.337267   -0.615108
      3          6           0        0.413880    1.337267    0.615109
      4          6           0        1.316306    0.451658    1.010913
      5          6           0        1.750432   -0.787593    0.331194
      6          6           0       -1.750432   -0.787593   -0.331195
      7          1           0       -1.796712    0.634175   -1.960406
      8          1           0       -0.272041    2.203900   -1.244191
      9          1           0        0.272040    2.203899    1.244193
     10          1           0        1.796711    0.634173    1.960407
     11          6           0       -2.135155   -0.886234    0.927312
     12          1           0       -1.791876   -1.664816   -0.959298
     13          1           0       -2.140702   -0.037574    1.587822
     14          1           0       -2.459257   -1.826273    1.338135
     15          6           0        2.135156   -0.886233   -0.927312
     16          1           0        1.791875   -1.664817    0.959296
     17          1           0        2.140704   -0.037572   -1.587821
     18          1           0        2.459259   -1.826271   -1.338136
 ---------------------------------------------------------------------

 The electronic state is 1-A.
 Alpha  occ. eigenvalues --  -11.23088 -11.23035 -11.22874 -11.22858 -11.22785
 Alpha  occ. eigenvalues --  -11.22784 -11.21644 -11.21644  -1.10687  -1.06850
 Alpha  occ. eigenvalues --   -1.01812  -0.97274  -0.85939  -0.80377  -0.74217
 Alpha  occ. eigenvalues --   -0.68544  -0.66514  -0.64014  -0.61447  -0.59584
 Alpha  occ. eigenvalues --   -0.58073  -0.55597  -0.51801  -0.48889  -0.47096
 Alpha  occ. eigenvalues --   -0.40677  -0.40448  -0.34752  -0.30504
 Alpha virt. eigenvalues --    0.13055   0.16226   0.22400   0.22794   0.26984
 Alpha virt. eigenvalues --    0.28625   0.28853   0.29605   0.30774   0.31698
 Alpha virt. eigenvalues --    0.34161   0.34468   0.35200   0.36639   0.44518

 Mulliken atomic charges:
              1
     1  C   -0.130284
     2  C   -0.145561
     3  C   -0.145561
     4  C   -0.130284
     5  C   -0.111710
     6  C   -0.111710
     7  H    0.133039
     8  H    0.135052
     9  H    0.135052
    10  H    0.133039
    11  C   -0.268536
    12  H    0.133661
    13  H    0.130246
    14  H    0.124093
    15  C   -0.268536
    16  H    0.133661
    17  H    0.130246
    18  H    0.124093
 Sum of Mulliken atomic charges =   0.00000

 Dipole moment (field-independent basis, Debye):
    X=              0.0000    Y=             -0.0621    Z=              0.0000  Tot=              0.0621
 Quadrupole moment (field-independent basis, Debye-Ang):
   XX=            -51.8059   YY=            -45.7490   ZZ=            -45.3831
   XY=              0.0000   XZ=              0.6092   YZ=              0.0000

 Normal termination of Gaussian 09 at Tue Jun  1 01:45:05 2021.
