 Gaussian 09, Revision B.01,
 Gaussian 09:  EM64L-G09RevB.01 12-Aug-2010

 --------------------------------
 #n B3LYP/6-311G(2df,2p) Opt Freq
 --------------------------------

 -------------------------
 terpineol4_large_geom_opt
 -------------------------
 Symbolic Z-matrix:
 Charge =  0 Multiplicity = 1

 SCF Done:  E(RB3LYP) =  -467.276357304     A.U. after   13 cycles
 SCF Done:  E(RB3LYP) =  -467.277327815     A.U. after   11 cycles
 SCF Done:  E(RB3LYP) =  -467.277367110     A.U. after   11 cycles
 SCF Done:  E(RB3LYP) =  -467.277383425     A.U. after   10 cycles
 SCF Done:  E(RB3LYP) =  -467.277402810     A.U. after   10 cycles
 SCF Done:  E(RB3LYP) =  -467.277403686     A.U. after    7 cycles
 SCF Done:  E(RB3LYP) =  -467.277403972     A.U. after    6 cycles
 SCF Done:  E(RB3LYP) =  -467.277404146     A.U. after    7 cycles
 SCF Done:  E(RB3LYP) =  -467.277404217     A.U. after    6 cycles
 Optimization completed.
    -- Stationary point found.
 Normal termination of Gaussian 09 at Thu May 27 00:24:28 2021.

 ----------------------------------------------------------------------
 #N Geom=AllCheck Guess=TCheck SCRF=Check GenChk RB3LYP/6-311G(2df,2p)
 Freq
 ----------------------------------------------------------------------

 terpineol4_large_geom_opt
 -------------------------
 Redundant internal coordinates taken from checkpoint file:
 terpineol4_large_geom_opt.chk
 Charge =  0 Multiplicity = 1

                         Standard orientation:
 ---------------------------------------------------------------------
 Center     Atomic      Atomic             Coordinates (Angstroms)
 Number     Number       Type             X           Y           Z
 ---------------------------------------------------------------------
      1          6           0       -1.405733    1.216197    0.327816
      2          6           0       -2.094024   -0.034549   -0.162794
      3          6           0       -1.507084   -1.226011   -0.061823
      4          6           0       -0.142789   -1.461141    0.529396
      5          6           0       -0.170974    0.918996    1.182746
      6          1           0       -2.114417    1.816418    0.906765
      7          1           0       -1.141892    1.841116   -0.533682
      8          6           0        0.716904   -0.190956    0.593204
      9          1           0       -0.486341    0.574001    2.169524
     10          1           0        0.407937    1.830172    1.345261
     11          1           0        0.373306   -2.247875   -0.019922
     12          1           0       -0.234788   -1.837421    1.553104
     13          1           0       -2.036696   -2.104078   -0.417237
     14          6           0       -3.454530    0.150284   -0.772197
     15          1           0       -4.155431    0.577707   -0.049353
     16          1           0       -3.868459   -0.791551   -1.130098
     17          1           0       -3.417483    0.846520   -1.615281
     18          6           0        1.317213    0.189198   -0.796376
     19          6           0        2.107265    1.506000   -0.755461
     20          1           0        1.501311    2.356039   -0.444575
     21          1           0        2.505034    1.736483   -1.744032
     22          1           0        2.965236    1.437169   -0.081301
     23          6           0        2.210353   -0.918528   -1.371496
     24          1           0        0.473999    0.328286   -1.477156
     25          1           0        2.995853   -1.184412   -0.664335
     26          1           0        2.682828   -0.580597   -2.294693
     27          1           0        1.652738   -1.822881   -1.608810
     28          8           0        1.770189   -0.497076    1.518517
     29          1           0        2.276143    0.304578    1.679594
 ---------------------------------------------------------------------

 SCF Done:  E(RB3LYP) =  -467.277404217     A.U. after    1 cycles

 The electronic state is 1-A.
 Alpha  occ. eigenvalues --  -19.10974 -10.22044 -10.16978 -10.16907 -10.16831
 Alpha  occ. eigenvalues --  -10.16180 -10.16093 -10.15895 -10.15878 -10.15598
 Alpha  occ. eigenvalues --  -10.14816  -1.01750  -0.84011  -0.79411  -0.75093
 Alpha  occ. eigenvalues --   -0.74500  -0.68414  -0.67588  -0.62411  -0.61209
 Alpha  occ. eigenvalues --   -0.56375  -0.50939  -0.49234  -0.46950  -0.46145
 Alpha  occ. eigenvalues --   -0.45065  -0.43459  -0.42130  -0.41805  -0.40110
 Alpha  occ. eigenvalues --   -0.39241  -0.38663  -0.38621  -0.37680  -0.36657
 Alpha  occ. eigenvalues --   -0.35409  -0.34635  -0.33450  -0.33165  -0.32039
 Alpha  occ. eigenvalues --   -0.29708  -0.26748  -0.23660
 Alpha virt. eigenvalues --    0.01864   0.03057   0.03905   0.06118   0.06312
 Alpha virt. eigenvalues --    0.06993   0.08223   0.09400   0.09899   0.11119
 Alpha virt. eigenvalues --    0.11387   0.12057   0.12390   0.12845   0.14531

 Mulliken atomic charges:
              1
     1  C   -0.163641
     2  C   -0.004636
     3  C   -0.129278
     4  C   -0.068230
     5  C   -0.096619
     6  H    0.057942
     7  H    0.079970
     8  C    0.197206
     9  H    0.065936
    10  H    0.056464
    11  H    0.067716
    12  H    0.070634
    13  H    0.064874
    14  C   -0.151397
    15  H    0.072844
    16  H    0.063620
    17  H    0.068707
    18  C   -0.090008
    19  C   -0.202905
    20  H    0.075503
    21  H    0.073724
    22  H    0.059244
    23  C   -0.173196
    24  H    0.065922
    25  H    0.074706
    26  H    0.060305
    27  H    0.070971
    28  O   -0.528904
    29  H    0.262526
 Sum of Mulliken atomic charges =   0.00000

 Dipole moment (field-independent basis, Debye):
    X=             -0.4513    Y=              1.4335    Z=             -0.5636  Tot=              1.6051
 Quadrupole moment (field-independent basis, Debye-Ang):
   XX=            -69.8192   YY=            -69.8172   ZZ=            -72.0073
   XY=              2.5838   XZ=             -0.1680   YZ=              2.4501

  Exact polarizability: 130.998  -3.874 117.793   2.224   0.818 101.149
 Approx polarizability: 168.288 -10.864 182.894   6.007  -2.270 152.474

                     1                      2                      3
                     A                      A                      A
 Frequencies --    36.9803                77.2312               156.4846
 Red. masses --     2.3911                 3.0470                 1.7037
 Frc consts  --     0.0019                 0.0107                 0.0246
 IR Inten    --     0.0246                 0.1620                 0.2845

                     4                      5                      6
                     A                      A                      A
 Frequencies --   187.5490               201.8620               222.9729
 Red. masses --     1.5403                 1.1590                 1.1138
 Frc consts  --     0.0319                 0.0278                 0.0326
 IR Inten    --     0.4817                 0.3011                 6.9568

                     7                      8                      9
                     A                      A                      A
 Frequencies --   237.3552               259.9363               294.4505
 Red. masses --     1.9828                 1.4469                 3.1133
 Frc consts  --     0.0658                 0.0576                 0.1590
 IR Inten    --     3.4194                53.7942                 1.3108

                    10                     11                     12
                     A                      A                      A
 Frequencies --   309.7577               321.9219               334.5426
 Red. masses --     1.9052                 1.9751                 2.7859
 Frc consts  --     0.1077                 0.1206                 0.1837
 IR Inten    --    40.9062                 2.4340                 7.8825

                    13                     14                     15
                     A                      A                      A
 Frequencies --   377.1811               405.4713               436.8154
 Red. masses --     2.5329                 2.7493                 2.2207
 Frc consts  --     0.2123                 0.2663                 0.2497
 IR Inten    --     1.7473                 1.2901                 1.6070

                    16                     17                     18
                     A                      A                      A
 Frequencies --   453.8130               474.5632               549.8092
 Red. masses --     2.1449                 2.9166                 3.9680
 Frc consts  --     0.2603                 0.3870                 0.7067
 IR Inten    --     4.4678                 3.9849                 0.7983

                    19                     20                     21
                     A                      A                      A
 Frequencies --   564.7570               678.9529               692.2622
 Red. masses --     2.9547                 2.7359                 3.2439
 Frc consts  --     0.5552                 0.7431                 0.9159
 IR Inten    --     2.4663                 0.1299                 2.4882

                    22                     23                     24
                     A                      A                      A
 Frequencies --   770.9359               829.5221               845.8733
 Red. masses --     2.3967                 1.2487                 2.0703
 Frc consts  --     0.8393                 0.5063                 0.8728
 IR Inten    --     1.5978                 5.9918                 3.0117

                    25                     26                     27
                     A                      A                      A
 Frequencies --   902.5516               923.9850               934.4095
 Red. masses --     2.1728                 1.4014                 1.5650
 Frc consts  --     1.0428                 0.7049                 0.8051
 IR Inten    --     5.9260                 3.9867                 5.8180

                    28                     29                     30
                     A                      A                      A
 Frequencies --   963.7094               965.9414               984.7840
 Red. masses --     1.6661                 1.8893                 1.6456
 Frc consts  --     0.9117                 1.0386                 0.9403
 IR Inten    --     4.2955                 7.5425                 1.9969

                    31                     32                     33
                     A                      A                      A
 Frequencies --  1017.7936              1029.2288              1046.9681
 Red. masses --     2.2914                 1.7485                 1.7456
 Frc consts  --     1.3985                 1.0913                 1.1274
 IR Inten    --    44.2298                 0.6094                 5.0151

                    34                     35                     36
                     A                      A                      A
 Frequencies --  1062.3411              1097.3206              1112.8579
 Red. masses --     1.7384                 2.0915                 1.9315
 Frc consts  --     1.1559                 1.4838                 1.4093
 IR Inten    --     2.9023                10.1400                11.0685

                    37                     38                     39
                     A                      A                      A
 Frequencies --  1136.4280              1152.9100              1180.5443
 Red. masses --     1.7762                 2.0290                 2.3834
 Frc consts  --     1.3515                 1.5890                 1.9571
 IR Inten    --    44.4188                 0.8994                13.7447

                    40                     41                     42
                     A                      A                      A
 Frequencies --  1191.5117              1195.3921              1239.4756
 Red. masses --     1.2167                 1.8254                 1.3602
 Frc consts  --     1.0177                 1.5369                 1.2312
 IR Inten    --    15.9977                 0.1466                 6.6253

                    43                     44                     45
                     A                      A                      A
 Frequencies --  1286.3703              1326.2941              1340.8085
 Red. masses --     1.5679                 1.4002                 1.4334
 Frc consts  --     1.5286                 1.4512                 1.5183
 IR Inten    --     4.0445                14.4265                 7.3976

                    46                     47                     48
                     A                      A                      A
 Frequencies --  1348.8949              1359.9460              1367.3904
 Red. masses --     1.3236                 1.4021                 1.5799
 Frc consts  --     1.4189                 1.5278                 1.7405
 IR Inten    --     3.7376                 1.2512                10.9878

                    49                     50                     51
                     A                      A                      A
 Frequencies --  1386.8118              1399.2624              1407.9543
 Red. masses --     1.9927                 1.3137                 1.5797
 Frc consts  --     2.2580                 1.5154                 1.8450
 IR Inten    --     7.4970                 5.3366                 5.6443

                    52                     53                     54
                     A                      A                      A
 Frequencies --  1419.1853              1422.3913              1481.8078
 Red. masses --     1.2645                 1.2272                 1.0713
 Frc consts  --     1.5005                 1.4628                 1.3859
 IR Inten    --     1.1140                 8.3654                 4.1624

                    55                     56                     57
                     A                      A                      A
 Frequencies --  1485.0210              1487.4656              1495.9030
 Red. masses --     1.0521                 1.0732                 1.0505
 Frc consts  --     1.3670                 1.3990                 1.3851
 IR Inten    --     4.7539                 3.4424                 1.1296

                    58                     59                     60
                     A                      A                      A
 Frequencies --  1497.8384              1506.3503              1508.4157
 Red. masses --     1.0631                 1.0707                 1.0600
 Frc consts  --     1.4053                 1.4314                 1.4210
 IR Inten    --     7.4800                 9.6014                 8.5071

                    61                     62                     63
                     A                      A                      A
 Frequencies --  1517.7865              1526.4064              1732.7216
 Red. masses --     1.0571                 1.0589                 6.5394
 Frc consts  --     1.4348                 1.4536                11.5677
 IR Inten    --     7.5088                 3.1501                 0.5552

                    64                     65                     66
                     A                      A                      A
 Frequencies --  2990.2849              3009.7658              3015.6983
 Red. masses --     1.0688                 1.0410                 1.0731
 Frc consts  --     5.6309                 5.5563                 5.7497
 IR Inten    --    24.0893                36.1866                16.9430

                    67                     68                     69
                     A                      A                      A
 Frequencies --  3018.4536              3020.4314              3034.8130
 Red. masses --     1.0772                 1.0524                 1.0765
 Frc consts  --     5.7824                 5.6566                 5.8414
 IR Inten    --    34.6133                20.7365                 8.9709

                    70                     71                     72
                     A                      A                      A
 Frequencies --  3038.0623              3040.3721              3046.5835
 Red. masses --     1.0554                 1.0469                 1.0989
 Frc consts  --     5.7393                 5.7016                 6.0094
 IR Inten    --    58.9889                21.1832                27.3934

                    73                     74                     75
                     A                      A                      A
 Frequencies --  3065.9779              3076.4543              3080.6414
 Red. masses --     1.1036                 1.0891                 1.0930
 Frc consts  --     6.1121                 6.0732                 6.1116
 IR Inten    --    38.0944                27.2711                24.4276

                    76                     77                     78
                     A                      A                      A
 Frequencies --  3095.9332              3099.3774              3100.7978
 Red. masses --     1.0986                 1.0984                 1.1003
 Frc consts  --     6.2039                 6.2168                 6.2333
 IR Inten    --    37.1904                19.4155                34.3532

                    79                     80                     81
                     A                      A                      A
 Frequencies --  3111.6097              3132.6978              3822.2474
 Red. masses --     1.1004                 1.0891                 1.0655
 Frc consts  --     6.2775                 6.2971                 9.1718
 IR Inten    --    27.0288                34.8721                11.9644

 - Thermochemistry -
 -------------------
 Temperature   298.150 Kelvin.  Pressure   1.00000 Atm.
 Atom     1 has atomic number  6 and mass  12.00000

 Molecular mass:   154.13577 amu.
 Principal axes and moments of inertia in atomic units:
                           1         2         3
     Eigenvalues --  1045.777522395.004572459.48269
           X            0.99994   0.00440  -0.01000
           Y           -0.00284   0.98848   0.15135
           Z            0.01055  -0.15131   0.98843
 This molecule is an asymmetric top.
 Rotational symmetry number  1.
 Warning -- assumption of classical behavior for rotation
           may cause significant error
 Rotational temperatures (Kelvin)      0.08282     0.03616     0.03522
 Rotational constants (GHZ):           1.72574     0.75354     0.73379
 Zero-point vibrational energy     687639.7 (Joules/Mol)
                                  164.34983 (Kcal/Mol)
 Warning -- explicit consideration of  19 degrees of freedom as
           vibrations may cause significant error
 Vibrational temperatures:     53.21   111.12   225.15   269.84   290.43
          (Kelvin)            320.81   341.50   373.99   423.65   445.67
                              463.17   481.33   542.68   583.38   628.48
                              652.93   682.79   791.05   812.56   976.86
                              996.01  1109.20  1193.50  1217.02  1298.57
                             1329.41  1344.41  1386.56  1389.77  1416.88
                             1464.38  1480.83  1506.35  1528.47  1578.80
                             1601.15  1635.06  1658.78  1698.54  1714.32
                             1719.90  1783.33  1850.80  1908.24  1929.12
                             1940.76  1956.66  1967.37  1995.31  2013.22
                             2025.73  2041.89  2046.50  2131.99  2136.61
                             2140.13  2152.27  2155.05  2167.30  2170.27
                             2183.75  2196.16  2493.00  4302.35  4330.38
                             4338.91  4342.88  4345.72  4366.41  4371.09
                             4374.41  4383.35  4411.25  4426.33  4432.35
                             4454.35  4459.31  4461.35  4476.91  4507.25
                             5499.35

 Zero-point correction=                           0.261908 (Hartree/Particle)
 Thermal correction to Energy=                    0.274208
 Thermal correction to Enthalpy=                  0.275152
 Thermal correction to Gibbs Free Energy=         0.224456
 Sum of electronic and zero-point Energies=           -467.015496
 Sum of electronic and thermal Energies=              -467.003196
 Sum of electronic and thermal Enthalpies=            -467.002252
 Sum of electronic and thermal Free Energies=         -467.052948

                     E (Thermal)             CV                S
                      KCal/Mol        Cal/Mol-Kelvin    Cal/Mol-Kelvin
 Total                  172.068             48.141            106.699
 Electronic               0.000              0.000              0.000
 Translational            0.889              2.981             41.008
 Rotational               0.889              2.981             30.200
 Vibrational            170.291             42.179             35.491
 Vibration     1          0.594              1.982              5.415
 Vibration     2          0.599              1.964              3.960
 Vibration     3          0.620              1.895              2.592
 Vibration     4          0.632              1.857              2.252
 Vibration     5          0.639              1.837              2.116
 Vibration     6          0.649              1.806              1.935
 Vibration     7          0.656              1.783              1.823
 Vibration     8          0.668              1.746              1.662
 Vibration     9          0.689              1.684              1.448
 Vibration    10          0.699              1.655              1.364
 Vibration    11          0.707              1.632              1.300
 Vibration    12          0.716              1.607              1.238
 Vibration    13          0.748              1.519              1.050
 Vibration    14          0.770              1.458              0.943
 Vibration    15          0.797              1.390              0.837
 Vibration    16          0.812              1.352              0.784
 Vibration    17          0.831              1.306              0.725
 Vibration    18          0.905              1.140              0.545
 Vibration    19          0.921              1.108              0.514

 Normal termination of Gaussian 09 at Thu May 27 01:04:19 2021.
